# vtk DataFile Version 3.0
#This file was generated by the deal.II library on 2013/3/4 at 17:45:14
ASCII
DATASET UNSTRUCTURED_GRID

POINTS 1024 double
-1 -1 0
-0.875 -1 0
-1 -0.875 0
-0.875 -0.875 0
-0.875 -1 0
-0.75 -1 0
-0.875 -0.875 0
-0.75 -0.875 0
-1 -0.875 0
-0.875 -0.875 0
-1 -0.75 0
-0.875 -0.75 0
-0.875 -0.875 0
-0.75 -0.875 0
-0.875 -0.75 0
-0.75 -0.75 0
-0.75 -1 0
-0.625 -1 0
-0.75 -0.875 0
-0.625 -0.875 0
-0.625 -1 0
-0.5 -1 0
-0.625 -0.875 0
-0.5 -0.875 0
-0.75 -0.875 0
-0.625 -0.875 0
-0.75 -0.75 0
-0.625 -0.75 0
-0.625 -0.875 0
-0.5 -0.875 0
-0.625 -0.75 0
-0.5 -0.75 0
-1 -0.75 0
-0.875 -0.75 0
-1 -0.625 0
-0.875 -0.625 0
-0.875 -0.75 0
-0.75 -0.75 0
-0.875 -0.625 0
-0.75 -0.625 0
-1 -0.625 0
-0.875 -0.625 0
-1 -0.5 0
-0.875 -0.5 0
-0.875 -0.625 0
-0.75 -0.625 0
-0.875 -0.5 0
-0.75 -0.5 0
-0.75 -0.75 0
-0.625 -0.75 0
-0.75 -0.625 0
-0.625 -0.625 0
-0.625 -0.75 0
-0.5 -0.75 0
-0.625 -0.625 0
-0.5 -0.625 0
-0.75 -0.625 0
-0.625 -0.625 0
-0.75 -0.5 0
-0.625 -0.5 0
-0.625 -0.625 0
-0.5 -0.625 0
-0.625 -0.5 0
-0.5 -0.5 0
-0.5 -1 0
-0.375 -1 0
-0.5 -0.875 0
-0.375 -0.875 0
-0.375 -1 0
-0.25 -1 0
-0.375 -0.875 0
-0.25 -0.875 0
-0.5 -0.875 0
-0.375 -0.875 0
-0.5 -0.75 0
-0.375 -0.75 0
-0.375 -0.875 0
-0.25 -0.875 0
-0.375 -0.75 0
-0.25 -0.75 0
-0.25 -1 0
-0.125 -1 0
-0.25 -0.875 0
-0.125 -0.875 0
-0.125 -1 0
0 -1 0
-0.125 -0.875 0
0 -0.875 0
-0.25 -0.875 0
-0.125 -0.875 0
-0.25 -0.75 0
-0.125 -0.75 0
-0.125 -0.875 0
0 -0.875 0
-0.125 -0.75 0
0 -0.75 0
-0.5 -0.75 0
-0.375 -0.75 0
-0.5 -0.625 0
-0.375 -0.625 0
-0.375 -0.75 0
-0.25 -0.75 0
-0.375 -0.625 0
-0.25 -0.625 0
-0.5 -0.625 0
-0.375 -0.625 0
-0.5 -0.5 0
-0.375 -0.5 0
-0.375 -0.625 0
-0.25 -0.625 0
-0.375 -0.5 0
-0.25 -0.5 0
-0.25 -0.75 0
-0.125 -0.75 0
-0.25 -0.625 0
-0.125 -0.625 0
-0.125 -0.75 0
0 -0.75 0
-0.125 -0.625 0
0 -0.625 0
-0.25 -0.625 0
-0.125 -0.625 0
-0.25 -0.5 0
-0.125 -0.5 0
-0.125 -0.625 0
0 -0.625 0
-0.125 -0.5 0
0 -0.5 0
-1 -0.5 0
-0.875 -0.5 0
-1 -0.375 0
-0.875 -0.375 0
-0.875 -0.5 0
-0.75 -0.5 0
-0.875 -0.375 0
-0.75 -0.375 0
-1 -0.375 0
-0.875 -0.375 0
-1 -0.25 0
-0.875 -0.25 0
-0.875 -0.375 0
-0.75 -0.375 0
-0.875 -0.25 0
-0.75 -0.25 0
-0.75 -0.5 0
-0.625 -0.5 0
-0.75 -0.375 0
-0.625 -0.375 0
-0.625 -0.5 0
-0.5 -0.5 0
-0.625 -0.375 0
-0.5 -0.375 0
-0.75 -0.375 0
-0.625 -0.375 0
-0.75 -0.25 0
-0.625 -0.25 0
-0.625 -0.375 0
-0.5 -0.375 0
-0.625 -0.25 0
-0.5 -0.25 0
-1 -0.25 0
-0.875 -0.25 0
-1 -0.125 0
-0.875 -0.125 0
-0.875 -0.25 0
-0.75 -0.25 0
-0.875 -0.125 0
-0.75 -0.125 0
-1 -0.125 0
-0.875 -0.125 0
-1 0 0
-0.875 0 0
-0.875 -0.125 0
-0.75 -0.125 0
-0.875 0 0
-0.75 0 0
-0.75 -0.25 0
-0.625 -0.25 0
-0.75 -0.125 0
-0.625 -0.125 0
-0.625 -0.25 0
-0.5 -0.25 0
-0.625 -0.125 0
-0.5 -0.125 0
-0.75 -0.125 0
-0.625 -0.125 0
-0.75 0 0
-0.625 0 0
-0.625 -0.125 0
-0.5 -0.125 0
-0.625 0 0
-0.5 0 0
-0.5 -0.5 0
-0.375 -0.5 0
-0.5 -0.375 0
-0.375 -0.375 0
-0.375 -0.5 0
-0.25 -0.5 0
-0.375 -0.375 0
-0.25 -0.375 0
-0.5 -0.375 0
-0.375 -0.375 0
-0.5 -0.25 0
-0.375 -0.25 0
-0.375 -0.375 0
-0.25 -0.375 0
-0.375 -0.25 0
-0.25 -0.25 0
-0.25 -0.5 0
-0.125 -0.5 0
-0.25 -0.375 0
-0.125 -0.375 0
-0.125 -0.5 0
0 -0.5 0
-0.125 -0.375 0
0 -0.375 0
-0.25 -0.375 0
-0.125 -0.375 0
-0.25 -0.25 0
-0.125 -0.25 0
-0.125 -0.375 0
0 -0.375 0
-0.125 -0.25 0
0 -0.25 0
-0.5 -0.25 0
-0.375 -0.25 0
-0.5 -0.125 0
-0.375 -0.125 0
-0.375 -0.25 0
-0.25 -0.25 0
-0.375 -0.125 0
-0.25 -0.125 0
-0.5 -0.125 0
-0.375 -0.125 0
-0.5 0 0
-0.375 0 0
-0.375 -0.125 0
-0.25 -0.125 0
-0.375 0 0
-0.25 0 0
-0.25 -0.25 0
-0.125 -0.25 0
-0.25 -0.125 0
-0.125 -0.125 0
-0.125 -0.25 0
0 -0.25 0
-0.125 -0.125 0
0 -0.125 0
-0.25 -0.125 0
-0.125 -0.125 0
-0.25 0 0
-0.125 0 0
-0.125 -0.125 0
0 -0.125 0
-0.125 0 0
0 0 0
0 -1 0
0.125 -1 0
0 -0.875 0
0.125 -0.875 0
0.125 -1 0
0.25 -1 0
0.125 -0.875 0
0.25 -0.875 0
0 -0.875 0
0.125 -0.875 0
0 -0.75 0
0.125 -0.75 0
0.125 -0.875 0
0.25 -0.875 0
0.125 -0.75 0
0.25 -0.75 0
0.25 -1 0
0.375 -1 0
0.25 -0.875 0
0.375 -0.875 0
0.375 -1 0
0.5 -1 0
0.375 -0.875 0
0.5 -0.875 0
0.25 -0.875 0
0.375 -0.875 0
0.25 -0.75 0
0.375 -0.75 0
0.375 -0.875 0
0.5 -0.875 0
0.375 -0.75 0
0.5 -0.75 0
0 -0.75 0
0.125 -0.75 0
0 -0.625 0
0.125 -0.625 0
0.125 -0.75 0
0.25 -0.75 0
0.125 -0.625 0
0.25 -0.625 0
0 -0.625 0
0.125 -0.625 0
0 -0.5 0
0.125 -0.5 0
0.125 -0.625 0
0.25 -0.625 0
0.125 -0.5 0
0.25 -0.5 0
0.25 -0.75 0
0.375 -0.75 0
0.25 -0.625 0
0.375 -0.625 0
0.375 -0.75 0
0.5 -0.75 0
0.375 -0.625 0
0.5 -0.625 0
0.25 -0.625 0
0.375 -0.625 0
0.25 -0.5 0
0.375 -0.5 0
0.375 -0.625 0
0.5 -0.625 0
0.375 -0.5 0
0.5 -0.5 0
0.5 -1 0
0.625 -1 0
0.5 -0.875 0
0.625 -0.875 0
0.625 -1 0
0.75 -1 0
0.625 -0.875 0
0.75 -0.875 0
0.5 -0.875 0
0.625 -0.875 0
0.5 -0.75 0
0.625 -0.75 0
0.625 -0.875 0
0.75 -0.875 0
0.625 -0.75 0
0.75 -0.75 0
0.75 -1 0
0.875 -1 0
0.75 -0.875 0
0.875 -0.875 0
0.875 -1 0
1 -1 0
0.875 -0.875 0
1 -0.875 0
0.75 -0.875 0
0.875 -0.875 0
0.75 -0.75 0
0.875 -0.75 0
0.875 -0.875 0
1 -0.875 0
0.875 -0.75 0
1 -0.75 0
0.5 -0.75 0
0.625 -0.75 0
0.5 -0.625 0
0.625 -0.625 0
0.625 -0.75 0
0.75 -0.75 0
0.625 -0.625 0
0.75 -0.625 0
0.5 -0.625 0
0.625 -0.625 0
0.5 -0.5 0
0.625 -0.5 0
0.625 -0.625 0
0.75 -0.625 0
0.625 -0.5 0
0.75 -0.5 0
0.75 -0.75 0
0.875 -0.75 0
0.75 -0.625 0
0.875 -0.625 0
0.875 -0.75 0
1 -0.75 0
0.875 -0.625 0
1 -0.625 0
0.75 -0.625 0
0.875 -0.625 0
0.75 -0.5 0
0.875 -0.5 0
0.875 -0.625 0
1 -0.625 0
0.875 -0.5 0
1 -0.5 0
0 -0.5 0
0.125 -0.5 0
0 -0.375 0
0.125 -0.375 0
0.125 -0.5 0
0.25 -0.5 0
0.125 -0.375 0
0.25 -0.375 0
0 -0.375 0
0.125 -0.375 0
0 -0.25 0
0.125 -0.25 0
0.125 -0.375 0
0.25 -0.375 0
0.125 -0.25 0
0.25 -0.25 0
0.25 -0.5 0
0.375 -0.5 0
0.25 -0.375 0
0.375 -0.375 0
0.375 -0.5 0
0.5 -0.5 0
0.375 -0.375 0
0.5 -0.375 0
0.25 -0.375 0
0.375 -0.375 0
0.25 -0.25 0
0.375 -0.25 0
0.375 -0.375 0
0.5 -0.375 0
0.375 -0.25 0
0.5 -0.25 0
0 -0.25 0
0.125 -0.25 0
0 -0.125 0
0.125 -0.125 0
0.125 -0.25 0
0.25 -0.25 0
0.125 -0.125 0
0.25 -0.125 0
0 -0.125 0
0.125 -0.125 0
0 0 0
0.125 0 0
0.125 -0.125 0
0.25 -0.125 0
0.125 0 0
0.25 0 0
0.25 -0.25 0
0.375 -0.25 0
0.25 -0.125 0
0.375 -0.125 0
0.375 -0.25 0
0.5 -0.25 0
0.375 -0.125 0
0.5 -0.125 0
0.25 -0.125 0
0.375 -0.125 0
0.25 0 0
0.375 0 0
0.375 -0.125 0
0.5 -0.125 0
0.375 0 0
0.5 0 0
0.5 -0.5 0
0.625 -0.5 0
0.5 -0.375 0
0.625 -0.375 0
0.625 -0.5 0
0.75 -0.5 0
0.625 -0.375 0
0.75 -0.375 0
0.5 -0.375 0
0.625 -0.375 0
0.5 -0.25 0
0.625 -0.25 0
0.625 -0.375 0
0.75 -0.375 0
0.625 -0.25 0
0.75 -0.25 0
0.75 -0.5 0
0.875 -0.5 0
0.75 -0.375 0
0.875 -0.375 0
0.875 -0.5 0
1 -0.5 0
0.875 -0.375 0
1 -0.375 0
0.75 -0.375 0
0.875 -0.375 0
0.75 -0.25 0
0.875 -0.25 0
0.875 -0.375 0
1 -0.375 0
0.875 -0.25 0
1 -0.25 0
0.5 -0.25 0
0.625 -0.25 0
0.5 -0.125 0
0.625 -0.125 0
0.625 -0.25 0
0.75 -0.25 0
0.625 -0.125 0
0.75 -0.125 0
0.5 -0.125 0
0.625 -0.125 0
0.5 0 0
0.625 0 0
0.625 -0.125 0
0.75 -0.125 0
0.625 0 0
0.75 0 0
0.75 -0.25 0
0.875 -0.25 0
0.75 -0.125 0
0.875 -0.125 0
0.875 -0.25 0
1 -0.25 0
0.875 -0.125 0
1 -0.125 0
0.75 -0.125 0
0.875 -0.125 0
0.75 0 0
0.875 0 0
0.875 -0.125 0
1 -0.125 0
0.875 0 0
1 0 0
-1 0 0
-0.875 0 0
-1 0.125 0
-0.875 0.125 0
-0.875 0 0
-0.75 0 0
-0.875 0.125 0
-0.75 0.125 0
-1 0.125 0
-0.875 0.125 0
-1 0.25 0
-0.875 0.25 0
-0.875 0.125 0
-0.75 0.125 0
-0.875 0.25 0
-0.75 0.25 0
-0.75 0 0
-0.625 0 0
-0.75 0.125 0
-0.625 0.125 0
-0.625 0 0
-0.5 0 0
-0.625 0.125 0
-0.5 0.125 0
-0.75 0.125 0
-0.625 0.125 0
-0.75 0.25 0
-0.625 0.25 0
-0.625 0.125 0
-0.5 0.125 0
-0.625 0.25 0
-0.5 0.25 0
-1 0.25 0
-0.875 0.25 0
-1 0.375 0
-0.875 0.375 0
-0.875 0.25 0
-0.75 0.25 0
-0.875 0.375 0
-0.75 0.375 0
-1 0.375 0
-0.875 0.375 0
-1 0.5 0
-0.875 0.5 0
-0.875 0.375 0
-0.75 0.375 0
-0.875 0.5 0
-0.75 0.5 0
-0.75 0.25 0
-0.625 0.25 0
-0.75 0.375 0
-0.625 0.375 0
-0.625 0.25 0
-0.5 0.25 0
-0.625 0.375 0
-0.5 0.375 0
-0.75 0.375 0
-0.625 0.375 0
-0.75 0.5 0
-0.625 0.5 0
-0.625 0.375 0
-0.5 0.375 0
-0.625 0.5 0
-0.5 0.5 0
-0.5 0 0
-0.375 0 0
-0.5 0.125 0
-0.375 0.125 0
-0.375 0 0
-0.25 0 0
-0.375 0.125 0
-0.25 0.125 0
-0.5 0.125 0
-0.375 0.125 0
-0.5 0.25 0
-0.375 0.25 0
-0.375 0.125 0
-0.25 0.125 0
-0.375 0.25 0
-0.25 0.25 0
-0.25 0 0
-0.125 0 0
-0.25 0.125 0
-0.125 0.125 0
-0.125 0 0
0 0 0
-0.125 0.125 0
0 0.125 0
-0.25 0.125 0
-0.125 0.125 0
-0.25 0.25 0
-0.125 0.25 0
-0.125 0.125 0
0 0.125 0
-0.125 0.25 0
0 0.25 0
-0.5 0.25 0
-0.375 0.25 0
-0.5 0.375 0
-0.375 0.375 0
-0.375 0.25 0
-0.25 0.25 0
-0.375 0.375 0
-0.25 0.375 0
-0.5 0.375 0
-0.375 0.375 0
-0.5 0.5 0
-0.375 0.5 0
-0.375 0.375 0
-0.25 0.375 0
-0.375 0.5 0
-0.25 0.5 0
-0.25 0.25 0
-0.125 0.25 0
-0.25 0.375 0
-0.125 0.375 0
-0.125 0.25 0
0 0.25 0
-0.125 0.375 0
0 0.375 0
-0.25 0.375 0
-0.125 0.375 0
-0.25 0.5 0
-0.125 0.5 0
-0.125 0.375 0
0 0.375 0
-0.125 0.5 0
0 0.5 0
-1 0.5 0
-0.875 0.5 0
-1 0.625 0
-0.875 0.625 0
-0.875 0.5 0
-0.75 0.5 0
-0.875 0.625 0
-0.75 0.625 0
-1 0.625 0
-0.875 0.625 0
-1 0.75 0
-0.875 0.75 0
-0.875 0.625 0
-0.75 0.625 0
-0.875 0.75 0
-0.75 0.75 0
-0.75 0.5 0
-0.625 0.5 0
-0.75 0.625 0
-0.625 0.625 0
-0.625 0.5 0
-0.5 0.5 0
-0.625 0.625 0
-0.5 0.625 0
-0.75 0.625 0
-0.625 0.625 0
-0.75 0.75 0
-0.625 0.75 0
-0.625 0.625 0
-0.5 0.625 0
-0.625 0.75 0
-0.5 0.75 0
-1 0.75 0
-0.875 0.75 0
-1 0.875 0
-0.875 0.875 0
-0.875 0.75 0
-0.75 0.75 0
-0.875 0.875 0
-0.75 0.875 0
-1 0.875 0
-0.875 0.875 0
-1 1 0
-0.875 1 0
-0.875 0.875 0
-0.75 0.875 0
-0.875 1 0
-0.75 1 0
-0.75 0.75 0
-0.625 0.75 0
-0.75 0.875 0
-0.625 0.875 0
-0.625 0.75 0
-0.5 0.75 0
-0.625 0.875 0
-0.5 0.875 0
-0.75 0.875 0
-0.625 0.875 0
-0.75 1 0
-0.625 1 0
-0.625 0.875 0
-0.5 0.875 0
-0.625 1 0
-0.5 1 0
-0.5 0.5 0
-0.375 0.5 0
-0.5 0.625 0
-0.375 0.625 0
-0.375 0.5 0
-0.25 0.5 0
-0.375 0.625 0
-0.25 0.625 0
-0.5 0.625 0
-0.375 0.625 0
-0.5 0.75 0
-0.375 0.75 0
-0.375 0.625 0
-0.25 0.625 0
-0.375 0.75 0
-0.25 0.75 0
-0.25 0.5 0
-0.125 0.5 0
-0.25 0.625 0
-0.125 0.625 0
-0.125 0.5 0
0 0.5 0
-0.125 0.625 0
0 0.625 0
-0.25 0.625 0
-0.125 0.625 0
-0.25 0.75 0
-0.125 0.75 0
-0.125 0.625 0
0 0.625 0
-0.125 0.75 0
0 0.75 0
-0.5 0.75 0
-0.375 0.75 0
-0.5 0.875 0
-0.375 0.875 0
-0.375 0.75 0
-0.25 0.75 0
-0.375 0.875 0
-0.25 0.875 0
-0.5 0.875 0
-0.375 0.875 0
-0.5 1 0
-0.375 1 0
-0.375 0.875 0
-0.25 0.875 0
-0.375 1 0
-0.25 1 0
-0.25 0.75 0
-0.125 0.75 0
-0.25 0.875 0
-0.125 0.875 0
-0.125 0.75 0
0 0.75 0
-0.125 0.875 0
0 0.875 0
-0.25 0.875 0
-0.125 0.875 0
-0.25 1 0
-0.125 1 0
-0.125 0.875 0
0 0.875 0
-0.125 1 0
0 1 0
0 0 0
0.125 0 0
0 0.125 0
0.125 0.125 0
0.125 0 0
0.25 0 0
0.125 0.125 0
0.25 0.125 0
0 0.125 0
0.125 0.125 0
0 0.25 0
0.125 0.25 0
0.125 0.125 0
0.25 0.125 0
0.125 0.25 0
0.25 0.25 0
0.25 0 0
0.375 0 0
0.25 0.125 0
0.375 0.125 0
0.375 0 0
0.5 0 0
0.375 0.125 0
0.5 0.125 0
0.25 0.125 0
0.375 0.125 0
0.25 0.25 0
0.375 0.25 0
0.375 0.125 0
0.5 0.125 0
0.375 0.25 0
0.5 0.25 0
0 0.25 0
0.125 0.25 0
0 0.375 0
0.125 0.375 0
0.125 0.25 0
0.25 0.25 0
0.125 0.375 0
0.25 0.375 0
0 0.375 0
0.125 0.375 0
0 0.5 0
0.125 0.5 0
0.125 0.375 0
0.25 0.375 0
0.125 0.5 0
0.25 0.5 0
0.25 0.25 0
0.375 0.25 0
0.25 0.375 0
0.375 0.375 0
0.375 0.25 0
0.5 0.25 0
0.375 0.375 0
0.5 0.375 0
0.25 0.375 0
0.375 0.375 0
0.25 0.5 0
0.375 0.5 0
0.375 0.375 0
0.5 0.375 0
0.375 0.5 0
0.5 0.5 0
0.5 0 0
0.625 0 0
0.5 0.125 0
0.625 0.125 0
0.625 0 0
0.75 0 0
0.625 0.125 0
0.75 0.125 0
0.5 0.125 0
0.625 0.125 0
0.5 0.25 0
0.625 0.25 0
0.625 0.125 0
0.75 0.125 0
0.625 0.25 0
0.75 0.25 0
0.75 0 0
0.875 0 0
0.75 0.125 0
0.875 0.125 0
0.875 0 0
1 0 0
0.875 0.125 0
1 0.125 0
0.75 0.125 0
0.875 0.125 0
0.75 0.25 0
0.875 0.25 0
0.875 0.125 0
1 0.125 0
0.875 0.25 0
1 0.25 0
0.5 0.25 0
0.625 0.25 0
0.5 0.375 0
0.625 0.375 0
0.625 0.25 0
0.75 0.25 0
0.625 0.375 0
0.75 0.375 0
0.5 0.375 0
0.625 0.375 0
0.5 0.5 0
0.625 0.5 0
0.625 0.375 0
0.75 0.375 0
0.625 0.5 0
0.75 0.5 0
0.75 0.25 0
0.875 0.25 0
0.75 0.375 0
0.875 0.375 0
0.875 0.25 0
1 0.25 0
0.875 0.375 0
1 0.375 0
0.75 0.375 0
0.875 0.375 0
0.75 0.5 0
0.875 0.5 0
0.875 0.375 0
1 0.375 0
0.875 0.5 0
1 0.5 0
0 0.5 0
0.125 0.5 0
0 0.625 0
0.125 0.625 0
0.125 0.5 0
0.25 0.5 0
0.125 0.625 0
0.25 0.625 0
0 0.625 0
0.125 0.625 0
0 0.75 0
0.125 0.75 0
0.125 0.625 0
0.25 0.625 0
0.125 0.75 0
0.25 0.75 0
0.25 0.5 0
0.375 0.5 0
0.25 0.625 0
0.375 0.625 0
0.375 0.5 0
0.5 0.5 0
0.375 0.625 0
0.5 0.625 0
0.25 0.625 0
0.375 0.625 0
0.25 0.75 0
0.375 0.75 0
0.375 0.625 0
0.5 0.625 0
0.375 0.75 0
0.5 0.75 0
0 0.75 0
0.125 0.75 0
0 0.875 0
0.125 0.875 0
0.125 0.75 0
0.25 0.75 0
0.125 0.875 0
0.25 0.875 0
0 0.875 0
0.125 0.875 0
0 1 0
0.125 1 0
0.125 0.875 0
0.25 0.875 0
0.125 1 0
0.25 1 0
0.25 0.75 0
0.375 0.75 0
0.25 0.875 0
0.375 0.875 0
0.375 0.75 0
0.5 0.75 0
0.375 0.875 0
0.5 0.875 0
0.25 0.875 0
0.375 0.875 0
0.25 1 0
0.375 1 0
0.375 0.875 0
0.5 0.875 0
0.375 1 0
0.5 1 0
0.5 0.5 0
0.625 0.5 0
0.5 0.625 0
0.625 0.625 0
0.625 0.5 0
0.75 0.5 0
0.625 0.625 0
0.75 0.625 0
0.5 0.625 0
0.625 0.625 0
0.5 0.75 0
0.625 0.75 0
0.625 0.625 0
0.75 0.625 0
0.625 0.75 0
0.75 0.75 0
0.75 0.5 0
0.875 0.5 0
0.75 0.625 0
0.875 0.625 0
0.875 0.5 0
1 0.5 0
0.875 0.625 0
1 0.625 0
0.75 0.625 0
0.875 0.625 0
0.75 0.75 0
0.875 0.75 0
0.875 0.625 0
1 0.625 0
0.875 0.75 0
1 0.75 0
0.5 0.75 0
0.625 0.75 0
0.5 0.875 0
0.625 0.875 0
0.625 0.75 0
0.75 0.75 0
0.625 0.875 0
0.75 0.875 0
0.5 0.875 0
0.625 0.875 0
0.5 1 0
0.625 1 0
0.625 0.875 0
0.75 0.875 0
0.625 1 0
0.75 1 0
0.75 0.75 0
0.875 0.75 0
0.75 0.875 0
0.875 0.875 0
0.875 0.75 0
1 0.75 0
0.875 0.875 0
1 0.875 0
0.75 0.875 0
0.875 0.875 0
0.75 1 0
0.875 1 0
0.875 0.875 0
1 0.875 0
0.875 1 0
1 1 0

CELLS 256 1280
4	0	1	3	2
4	4	5	7	6
4	8	9	11	10
4	12	13	15	14
4	16	17	19	18
4	20	21	23	22
4	24	25	27	26
4	28	29	31	30
4	32	33	35	34
4	36	37	39	38
4	40	41	43	42
4	44	45	47	46
4	48	49	51	50
4	52	53	55	54
4	56	57	59	58
4	60	61	63	62
4	64	65	67	66
4	68	69	71	70
4	72	73	75	74
4	76	77	79	78
4	80	81	83	82
4	84	85	87	86
4	88	89	91	90
4	92	93	95	94
4	96	97	99	98
4	100	101	103	102
4	104	105	107	106
4	108	109	111	110
4	112	113	115	114
4	116	117	119	118
4	120	121	123	122
4	124	125	127	126
4	128	129	131	130
4	132	133	135	134
4	136	137	139	138
4	140	141	143	142
4	144	145	147	146
4	148	149	151	150
4	152	153	155	154
4	156	157	159	158
4	160	161	163	162
4	164	165	167	166
4	168	169	171	170
4	172	173	175	174
4	176	177	179	178
4	180	181	183	182
4	184	185	187	186
4	188	189	191	190
4	192	193	195	194
4	196	197	199	198
4	200	201	203	202
4	204	205	207	206
4	208	209	211	210
4	212	213	215	214
4	216	217	219	218
4	220	221	223	222
4	224	225	227	226
4	228	229	231	230
4	232	233	235	234
4	236	237	239	238
4	240	241	243	242
4	244	245	247	246
4	248	249	251	250
4	252	253	255	254
4	256	257	259	258
4	260	261	263	262
4	264	265	267	266
4	268	269	271	270
4	272	273	275	274
4	276	277	279	278
4	280	281	283	282
4	284	285	287	286
4	288	289	291	290
4	292	293	295	294
4	296	297	299	298
4	300	301	303	302
4	304	305	307	306
4	308	309	311	310
4	312	313	315	314
4	316	317	319	318
4	320	321	323	322
4	324	325	327	326
4	328	329	331	330
4	332	333	335	334
4	336	337	339	338
4	340	341	343	342
4	344	345	347	346
4	348	349	351	350
4	352	353	355	354
4	356	357	359	358
4	360	361	363	362
4	364	365	367	366
4	368	369	371	370
4	372	373	375	374
4	376	377	379	378
4	380	381	383	382
4	384	385	387	386
4	388	389	391	390
4	392	393	395	394
4	396	397	399	398
4	400	401	403	402
4	404	405	407	406
4	408	409	411	410
4	412	413	415	414
4	416	417	419	418
4	420	421	423	422
4	424	425	427	426
4	428	429	431	430
4	432	433	435	434
4	436	437	439	438
4	440	441	443	442
4	444	445	447	446
4	448	449	451	450
4	452	453	455	454
4	456	457	459	458
4	460	461	463	462
4	464	465	467	466
4	468	469	471	470
4	472	473	475	474
4	476	477	479	478
4	480	481	483	482
4	484	485	487	486
4	488	489	491	490
4	492	493	495	494
4	496	497	499	498
4	500	501	503	502
4	504	505	507	506
4	508	509	511	510
4	512	513	515	514
4	516	517	519	518
4	520	521	523	522
4	524	525	527	526
4	528	529	531	530
4	532	533	535	534
4	536	537	539	538
4	540	541	543	542
4	544	545	547	546
4	548	549	551	550
4	552	553	555	554
4	556	557	559	558
4	560	561	563	562
4	564	565	567	566
4	568	569	571	570
4	572	573	575	574
4	576	577	579	578
4	580	581	583	582
4	584	585	587	586
4	588	589	591	590
4	592	593	595	594
4	596	597	599	598
4	600	601	603	602
4	604	605	607	606
4	608	609	611	610
4	612	613	615	614
4	616	617	619	618
4	620	621	623	622
4	624	625	627	626
4	628	629	631	630
4	632	633	635	634
4	636	637	639	638
4	640	641	643	642
4	644	645	647	646
4	648	649	651	650
4	652	653	655	654
4	656	657	659	658
4	660	661	663	662
4	664	665	667	666
4	668	669	671	670
4	672	673	675	674
4	676	677	679	678
4	680	681	683	682
4	684	685	687	686
4	688	689	691	690
4	692	693	695	694
4	696	697	699	698
4	700	701	703	702
4	704	705	707	706
4	708	709	711	710
4	712	713	715	714
4	716	717	719	718
4	720	721	723	722
4	724	725	727	726
4	728	729	731	730
4	732	733	735	734
4	736	737	739	738
4	740	741	743	742
4	744	745	747	746
4	748	749	751	750
4	752	753	755	754
4	756	757	759	758
4	760	761	763	762
4	764	765	767	766
4	768	769	771	770
4	772	773	775	774
4	776	777	779	778
4	780	781	783	782
4	784	785	787	786
4	788	789	791	790
4	792	793	795	794
4	796	797	799	798
4	800	801	803	802
4	804	805	807	806
4	808	809	811	810
4	812	813	815	814
4	816	817	819	818
4	820	821	823	822
4	824	825	827	826
4	828	829	831	830
4	832	833	835	834
4	836	837	839	838
4	840	841	843	842
4	844	845	847	846
4	848	849	851	850
4	852	853	855	854
4	856	857	859	858
4	860	861	863	862
4	864	865	867	866
4	868	869	871	870
4	872	873	875	874
4	876	877	879	878
4	880	881	883	882
4	884	885	887	886
4	888	889	891	890
4	892	893	895	894
4	896	897	899	898
4	900	901	903	902
4	904	905	907	906
4	908	909	911	910
4	912	913	915	914
4	916	917	919	918
4	920	921	923	922
4	924	925	927	926
4	928	929	931	930
4	932	933	935	934
4	936	937	939	938
4	940	941	943	942
4	944	945	947	946
4	948	949	951	950
4	952	953	955	954
4	956	957	959	958
4	960	961	963	962
4	964	965	967	966
4	968	969	971	970
4	972	973	975	974
4	976	977	979	978
4	980	981	983	982
4	984	985	987	986
4	988	989	991	990
4	992	993	995	994
4	996	997	999	998
4	1000	1001	1003	1002
4	1004	1005	1007	1006
4	1008	1009	1011	1010
4	1012	1013	1015	1014
4	1016	1017	1019	1018
4	1020	1021	1023	1022

CELL_TYPES 256
 9 9 9 9 9 9 9 9 9 9 9 9 9 9 9 9 9 9 9 9 9 9 9 9 9 9 9 9 9 9 9 9 9 9 9 9 9 9 9 9 9 9 9 9 9 9 9 9 9 9 9 9 9 9 9 9 9 9 9 9 9 9 9 9 9 9 9 9 9 9 9 9 9 9 9 9 9 9 9 9 9 9 9 9 9 9 9 9 9 9 9 9 9 9 9 9 9 9 9 9 9 9 9 9 9 9 9 9 9 9 9 9 9 9 9 9 9 9 9 9 9 9 9 9 9 9 9 9 9 9 9 9 9 9 9 9 9 9 9 9 9 9 9 9 9 9 9 9 9 9 9 9 9 9 9 9 9 9 9 9 9 9 9 9 9 9 9 9 9 9 9 9 9 9 9 9 9 9 9 9 9 9 9 9 9 9 9 9 9 9 9 9 9 9 9 9 9 9 9 9 9 9 9 9 9 9 9 9 9 9 9 9 9 9 9 9 9 9 9 9 9 9 9 9 9 9 9 9 9 9 9 9 9 9 9 9 9 9 9 9 9 9 9 9 9 9 9 9 9 9 9 9 9 9 9 9
POINT_DATA 1024
SCALARS solution double 1
LOOKUP_TABLE default
0 0 0 1.00288 0 0 1.00288 2.00994 0 1.00288 0 2.00209 1.00288 2.00994 2.00209 4.01103 0 0 2.00994 3.02685 0 0 3.02685 4.06217 2.00994 3.02685 4.01103 6.03671 3.02685 4.06217 6.03671 8.09494 0 2.00209 0 2.99548 2.00209 4.01103 2.99548 5.99737 0 2.99548 0 3.98408 2.99548 5.99737 3.98408 7.96924 4.01103 6.03671 5.99737 9.01689 6.03671 8.09494 9.01689 12.0745 5.99737 9.01689 7.96924 11.9635 9.01689 12.0745 11.9635 15.9879 0 0 4.06217 5.12875 0 0 5.12875 6.24501 4.06217 5.12875 8.09494 10.2101 5.12875 6.24501 10.2101 12.4177 0 0 6.24501 7.43648 0 0 7.43648 8.7378 6.24501 7.43648 12.4177 14.767 7.43648 8.7378 14.767 17.3244 8.09494 10.2101 12.0745 15.2036 10.2101 12.4177 15.2036 18.4543 12.0745 15.2036 15.9879 20.082 15.2036 18.4543 20.082 24.3072 12.4177 14.767 18.4543 21.8965 14.767 17.3244 21.8965 25.6237 18.4543 21.8965 24.3072 28.7505 21.8965 25.6237 28.7505 33.5274 0 3.98408 0 4.97401 3.98408 7.96924 4.97401 9.93657 0 4.97401 0 5.97885 4.97401 9.93657 5.97885 11.9234 7.96924 11.9635 9.93657 14.8861 11.9635 15.9879 14.8861 19.8393 9.93657 14.8861 11.9234 17.8135 14.8861 19.8393 17.8135 23.6552 0 5.97885 0 7.02312 5.97885 11.9234 7.02312 13.9737 0 7.02312 0 8.14774 7.02312 13.9737 8.14774 16.1613 11.9234 17.8135 13.9737 20.801 17.8135 23.6552 20.801 27.4925 13.9737 20.801 16.1613 23.9411 20.801 27.4925 23.9411 31.4474 15.9879 20.082 19.8393 24.8377 20.082 24.3072 24.8377 29.9514 19.8393 24.8377 23.6552 29.4884 24.8377 29.9514 29.4884 35.3899 24.3072 28.7505 29.9514 35.2817 28.7505 33.5274 35.2817 40.962 29.9514 35.2817 35.3899 41.474 35.2817 40.962 41.474 47.891 23.6552 29.4884 27.4925 34.0833 29.4884 35.3899 34.0833 40.6576 27.4925 34.0833 31.4474 38.7101 34.0833 40.6576 38.7101 45.8254 35.3899 41.474 40.6576 47.3449 41.474 47.891 47.3449 54.3139 40.6576 47.3449 45.8254 52.945 47.3449 54.3139 52.945 60.2623 0 0 8.7378 10.1959 0 0 10.1959 11.8755 8.7378 10.1959 17.3244 20.1787 10.1959 11.8755 20.1787 23.4506 0 0 11.8755 13.8703 0 0 13.8703 16.3248 11.8755 13.8703 23.4506 27.3087 13.8703 16.3248 27.3087 32.0026 17.3244 20.1787 25.6237 29.7587 20.1787 23.4506 29.7587 34.4632 25.6237 29.7587 33.5274 38.7863 29.7587 34.4632 38.7863 44.7155 23.4506 27.3087 34.4632 39.9535 27.3087 32.0026 39.9535 46.5288 34.4632 39.9535 44.7155 51.5536 39.9535 46.5288 51.5536 59.6053 0 0 16.3248 19.4864 0 0 19.4864 23.8458 16.3248 19.4864 32.0026 37.9306 19.4864 23.8458 37.9306 45.7874 0 0 23.8458 30.5782 0 0 30.5782 45.0703 23.8458 30.5782 45.7874 56.9841 30.5782 45.0703 56.9841 72.9378 32.0026 37.9306 46.5288 54.6177 37.9306 45.7874 54.6177 64.8513 46.5288 54.6177 59.6053 69.2582 54.6177 64.8513 69.2582 80.9776 45.7874 56.9841 64.8513 78.0053 56.9841 72.9378 78.0053 94.7967 64.8513 78.0053 80.9776 95.2498 78.0053 94.7967 95.2498 112.458 33.5274 38.7863 40.962 47.1599 38.7863 44.7155 47.1599 54.0802 40.962 47.1599 47.891 54.8248 47.1599 54.0802 54.8248 62.4923 44.7155 51.5536 54.0802 61.9683 51.5536 59.6053 61.9683 71.1139 54.0802 61.9683 62.4923 71.1409 61.9683 71.1139 71.1409 81.0444 47.891 54.8248 54.3139 61.7666 54.8248 62.4923 61.7666 69.9329 54.3139 61.7666 60.2623 68.0023 61.7666 69.9329 68.0023 76.4129 62.4923 71.1409 69.9329 79.0651 71.1409 81.0444 79.0651 89.4302 69.9329 79.0651 76.4129 85.758 79.0651 89.4302 85.758 96.3095 59.6053 69.2582 71.1139 81.8481 69.2582 80.9776 81.8481 94.5231 71.1139 81.8481 81.0444 92.4925 81.8481 94.5231 92.4925 105.77 80.9776 95.2498 94.5231 109.467 95.2498 112.458 109.467 126.919 94.5231 109.467 105.77 121.122 109.467 126.919 121.122 138.719 81.0444 92.4925 89.4302 101.296 92.4925 105.77 101.296 114.915 89.4302 101.296 96.3095 108.334 101.296 114.915 108.334 122.076 105.77 121.122 114.915 130.493 121.122 138.719 130.493 148.169 114.915 130.493 122.076 137.734 130.493 148.169 137.734 155.438 0 8.14774 0 9.41943 8.14774 16.1613 9.41943 18.6043 0 9.41943 0 10.9484 9.41943 18.6043 10.9484 21.4937 16.1613 23.9411 18.6043 27.3797 23.9411 31.4474 27.3797 35.669 18.6043 27.3797 21.4937 31.3432 27.3797 35.669 31.3432 40.3778 0 10.9484 0 12.9246 10.9484 21.4937 12.9246 25.1455 0 12.9246 0 15.699 12.9246 25.1455 15.699 30.1102 21.4937 31.3432 25.1455 36.1842 31.3432 40.3778 36.1842 45.8915 25.1455 36.1842 30.1102 42.4604 36.1842 45.8915 42.4604 52.6515 31.4474 38.7101 35.669 43.5026 38.7101 45.8254 43.5026 51.0027 35.669 43.5026 40.3778 48.65 43.5026 51.0027 48.65 56.3384 45.8254 52.945 51.0027 58.3572 52.945 60.2623 58.3572 65.7957 51.0027 58.3572 56.3384 63.6931 58.3572 65.7957 63.6931 70.9952 40.3778 48.65 45.8915 54.4023 48.65 56.3384 54.4023 62.0156 45.8915 54.4023 52.6515 61.0624 54.4023 62.0156 61.0624 68.2313 56.3384 63.6931 62.0156 69.0839 63.6931 70.9952 69.0839 75.9563 62.0156 69.0839 68.2313 74.6631 69.0839 75.9563 74.6631 80.778 0 15.699 0 19.9914 15.699 30.1102 19.9914 37.42 0 19.9914 0 27.5488 19.9914 37.42 27.5488 49.1529 30.1102 42.4604 37.42 51.057 42.4604 52.6515 51.057 61.2231 37.42 51.057 49.1529 63.3401 51.057 61.2231 63.3401 72.0974 0 27.5488 0 43.392 27.5488 49.1529 43.392 70.4342 0 43.392 100 100 43.392 70.4342 100 100 49.1529 63.3401 70.4342 80.0401 63.3401 72.0974 80.0401 85.2961 70.4342 80.0401 100 100 80.0401 85.2961 100 100 52.6515 61.0624 61.2231 68.9314 61.0624 68.2313 68.9314 75.1525 61.2231 68.9314 72.0974 78.1848 68.9314 75.1525 78.1848 82.8483 68.2313 74.6631 75.1525 80.5389 74.6631 80.778 80.5389 85.5483 75.1525 80.5389 82.8483 86.76 80.5389 85.5483 86.76 90.3299 72.0974 78.1848 85.2961 88.7063 78.1848 82.8483 88.7063 91.2236 85.2961 88.7063 100 100 88.7063 91.2236 100 100 82.8483 86.76 91.2236 93.289 86.76 90.3299 93.289 95.1499 91.2236 93.289 100 100 93.289 95.1499 100 100 60.2623 68.0023 65.7957 73.5732 68.0023 76.4129 73.5732 81.9614 65.7957 73.5732 70.9952 78.5372 73.5732 81.9614 78.5372 86.6183 76.4129 85.758 81.9614 91.2436 85.758 96.3095 91.2436 101.709 81.9614 91.2436 86.6183 95.5455 91.2436 101.709 95.5455 105.634 70.9952 78.5372 75.9563 82.9649 78.5372 86.6183 82.9649 90.4326 75.9563 82.9649 80.778 86.9352 82.9649 90.4326 86.9352 93.4661 86.6183 95.5455 90.4326 98.6879 95.5455 105.634 98.6879 108.077 90.4326 98.6879 93.4661 100.706 98.6879 108.077 100.706 109.023 96.3095 108.334 101.709 113.64 108.334 122.076 113.64 127.299 101.709 113.64 105.634 117.203 113.64 127.299 117.203 130.555 122.076 137.734 127.299 142.899 137.734 155.438 142.899 160.582 127.299 142.899 130.555 145.948 142.899 160.582 145.948 163.558 105.634 117.203 108.077 118.97 117.203 130.555 118.97 131.743 108.077 118.97 109.023 118.848 118.97 131.743 118.848 130.674 130.555 145.948 131.743 146.74 145.948 163.558 146.74 164.209 131.743 146.74 130.674 145.004 146.74 164.209 145.004 162.23 80.778 86.9352 85.5483 90.5332 86.9352 93.4661 90.5332 95.8023 85.5483 90.5332 90.3299 93.848 90.5332 95.8023 93.848 97.5577 93.4661 100.706 95.8023 101.667 100.706 109.023 101.667 108.49 95.8023 101.667 97.5577 101.705 101.667 108.49 101.705 106.589 90.3299 93.848 95.1499 96.972 93.848 97.5577 96.972 98.8907 95.1499 96.972 100 100 96.972 98.8907 100 100 97.5577 101.705 98.8907 101.043 101.705 106.589 101.043 103.601 98.8907 101.043 100 100 101.043 103.601 100 100 109.023 118.848 108.49 116.738 118.848 130.674 116.738 127.071 108.49 116.738 106.589 112.64 116.738 127.071 112.64 120.572 130.674 145.004 127.071 140.278 145.004 162.23 140.278 157.086 127.071 140.278 120.572 131.81 140.278 157.086 131.81 147.777 106.589 112.64 103.601 106.829 112.64 120.572 106.829 111.229 103.601 106.829 100 100 106.829 111.229 100 100 120.572 131.81 111.229 117.984 131.81 147.777 117.984 132.483 111.229 117.984 100 100 117.984 132.483 100 100 
